====================================================================
                      SLURM SrunProlog script
--------------------------------------------------------------------
   Running Slurm Job: JobName(110508)
   Cluster: sauron
   User: amano(1007)
   Partition: sky6126  with Nodes: orc71

   Modules loaded:
     - intel/19.1.3.304
     - oneapi/compiler-rt/2021.1.1
     - oneapi/tbb/2021.1.1
     - oneapi/mkl/2021.1.1
     - impi/2021.1.1
     - oneapi/mpi/2021.1.1

   For more information check sacct e.g.:
   sacct -j 110508 --format={details: e.g. jobid,start,end,node}
====================================================================


     Program PHONON v.6.4.1 starts on 22Oct2021 at 11:33:52 

     This program is part of the open-source Quantum ESPRESSO suite
     for quantum simulation of materials; please cite
         "P. Giannozzi et al., J. Phys.:Condens. Matter 21 395502 (2009);
         "P. Giannozzi et al., J. Phys.:Condens. Matter 29 465901 (2017);
          URL http://www.quantum-espresso.org", 
     in publications or presentations arising from this work. More details at
     http://www.quantum-espresso.org/quote

     Parallel version (MPI), running on    24 processors

     MPI processes distributed on     1 nodes
     R & G space division:  proc/nbgrp/npool/nimage =      24

     Reading data from directory:
     ./work/h2o_bec.save/

     IMPORTANT: XC functional enforced from input :
     Exchange-correlation      = PBE ( 1  4  3  4 0 0)
     Any further DFT definition will be discarded
     Please, verify this is what you really want

 
     Parallelization info
     --------------------
     sticks:   dense  smooth     PW     G-vecs:    dense   smooth      PW
     Min          93      93     23                 3295     3295     409
     Max          94      94     24                 3299     3299     414
     Sum        2233    2233    553                79117    79117    9843
 

     Check: negative core charge=   -0.000001

     negative rho (up, down):  2.920E-05 0.000E+00

     Calculation of q =    0.0000000   0.0000000   0.0000000

     h2o phonon                                                                 

     bravais-lattice index     =            1
     lattice parameter (alat)  =      10.0000  a.u.
     unit-cell volume          =    1000.0000 (a.u.)^3
     number of atoms/cell      =            3
     number of atomic types    =            2
     kinetic-energy cut-off    =      70.0000  Ry
     charge density cut-off    =     280.0000  Ry
     convergence threshold     =      1.0E-14
     beta                      =       0.7000
     number of iterations used =            4
     Exchange-correlation      = PBE ( 1  4  3  4 0 0)


     celldm(1)=   10.00000  celldm(2)=    0.00000  celldm(3)=    0.00000
     celldm(4)=    0.00000  celldm(5)=    0.00000  celldm(6)=    0.00000

     crystal axes: (cart. coord. in units of alat)
               a(1) = (  1.0000  0.0000  0.0000 )  
               a(2) = (  0.0000  1.0000  0.0000 )  
               a(3) = (  0.0000  0.0000  1.0000 )  

     reciprocal axes: (cart. coord. in units 2 pi/alat)
               b(1) = (  1.0000  0.0000  0.0000 )  
               b(2) = (  0.0000  1.0000  0.0000 )  
               b(3) = (  0.0000  0.0000  1.0000 )  


     Atoms inside the unit cell: 

     Cartesian axes

     site n.  atom      mass           positions (alat units)
        1     O   15.9990   tau(    1) = (    0.00000    0.00000    0.00000  )
        2     H    1.0078   tau(    2) = (    0.18317    0.00000    0.00000  )
        3     H    1.0078   tau(    3) = (   -0.04464    0.17765    0.00000  )

     Computing dynamical matrix for 
                    q = (   0.0000000   0.0000000   0.0000000 )
 
      2 Sym.Ops. (with q -> -q+G )


     G cutoff =  709.2483  (   3297 G-vectors)     FFT grid: ( 54, 54, 54)
     number of k points=     1
                       cart. coord. in units 2pi/alat
        k(    1) = (   0.0000000   0.0000000   0.0000000), wk =   2.0000000

     PseudoPot. # 1 for H  read from file:
     /home/amano/src/qe-6.4.1/pseudo/H.pbe-rrkjus_psl.1.0.0.UPF
     MD5 check sum: 3f4114867bd07edc7f1424d066fc1888
     Pseudo is Ultrasoft, Zval =  1.0
     Generated using "atomic" code by A. Dal Corso v.6.3MaX
     Using radial grid of  929 points,  2 beta functions with: 
                l(1) =   0
                l(2) =   0
     Q(r) pseudized with 0 coefficients 


     PseudoPot. # 2 for O  read from file:
     /home/amano/src/qe-6.4.1/pseudo/O.pbe-n-rrkjus_psl.1.0.0.UPF
     MD5 check sum: 91400c9766925bcf19f520983a725ff0
     Pseudo is Ultrasoft + core correction, Zval =  6.0
     Generated using "atomic" code by A. Dal Corso v.6.3MaX
     Using radial grid of 1095 points,  4 beta functions with: 
                l(1) =   0
                l(2) =   0
                l(3) =   1
                l(4) =   1
     Q(r) pseudized with 0 coefficients 


     Mode symmetry, C_1 (1)     point group:

     k=gamma and q=gamma tricks are used


     Atomic displacements:
     There are   9 irreducible representations

     Representation     1      1 modes -A  To be done

     Representation     2      1 modes -A  To be done

     Representation     3      1 modes -A  To be done

     Representation     4      1 modes -A  To be done

     Representation     5      1 modes -A  To be done

     Representation     6      1 modes -A  To be done

     Representation     7      1 modes -A  To be done

     Representation     8      1 modes -A  To be done

     Representation     9      1 modes -A  To be done



     Alpha used in Ewald sum =   2.8000

     negative rho (up, down):  2.920E-05 0.000E+00
     PHONON       :      0.54s CPU      2.51s WALL



     Representation #  1 mode #   1

     Self-consistent Calculation

      iter #   1 total cpu time :     5.1 secs   av.it.:   9.0
      thresh= 1.000E-02 alpha_mix =  0.700 |ddv_scf|^2 =  6.310E-07

      iter #   2 total cpu time :     6.1 secs   av.it.:  14.0
      thresh= 7.943E-05 alpha_mix =  0.700 |ddv_scf|^2 =  2.992E-08

      iter #   3 total cpu time :     7.2 secs   av.it.:  14.0
      thresh= 1.730E-05 alpha_mix =  0.700 |ddv_scf|^2 =  4.000E-09

      iter #   4 total cpu time :     9.8 secs   av.it.:  14.0
      thresh= 6.325E-06 alpha_mix =  0.700 |ddv_scf|^2 =  5.514E-10

      iter #   5 total cpu time :    13.2 secs   av.it.:  14.0
      thresh= 2.348E-06 alpha_mix =  0.700 |ddv_scf|^2 =  4.596E-12

      iter #   6 total cpu time :    14.9 secs   av.it.:  14.0
      thresh= 2.144E-07 alpha_mix =  0.700 |ddv_scf|^2 =  8.990E-14

      iter #   7 total cpu time :    15.2 secs   av.it.:  14.0
      thresh= 2.998E-08 alpha_mix =  0.700 |ddv_scf|^2 =  2.756E-15

     End of self-consistent calculation

     Convergence has been achieved 


     Representation #  2 mode #   2

     Self-consistent Calculation

      iter #   1 total cpu time :    17.5 secs   av.it.:   9.0
      thresh= 1.000E-02 alpha_mix =  0.700 |ddv_scf|^2 =  5.996E-07

      iter #   2 total cpu time :    18.5 secs   av.it.:  14.0
      thresh= 7.743E-05 alpha_mix =  0.700 |ddv_scf|^2 =  2.488E-08

      iter #   3 total cpu time :    20.1 secs   av.it.:  14.0
      thresh= 1.577E-05 alpha_mix =  0.700 |ddv_scf|^2 =  6.862E-09

      iter #   4 total cpu time :    22.7 secs   av.it.:  13.0
      thresh= 8.284E-06 alpha_mix =  0.700 |ddv_scf|^2 =  1.971E-10

      iter #   5 total cpu time :    24.6 secs   av.it.:  14.0
      thresh= 1.404E-06 alpha_mix =  0.700 |ddv_scf|^2 =  5.995E-12

      iter #   6 total cpu time :    26.2 secs   av.it.:  14.0
      thresh= 2.448E-07 alpha_mix =  0.700 |ddv_scf|^2 =  1.360E-13

      iter #   7 total cpu time :    26.7 secs   av.it.:  14.0
      thresh= 3.687E-08 alpha_mix =  0.700 |ddv_scf|^2 =  4.899E-15

     End of self-consistent calculation

     Convergence has been achieved 


     Representation #  3 mode #   3

     Self-consistent Calculation

      iter #   1 total cpu time :    31.5 secs   av.it.:   8.0
      thresh= 1.000E-02 alpha_mix =  0.700 |ddv_scf|^2 =  5.129E-07

      iter #   2 total cpu time :    32.4 secs   av.it.:  13.0
      thresh= 7.162E-05 alpha_mix =  0.700 |ddv_scf|^2 =  1.076E-08

      iter #   3 total cpu time :    33.5 secs   av.it.:  12.0
      thresh= 1.037E-05 alpha_mix =  0.700 |ddv_scf|^2 =  5.784E-10

      iter #   4 total cpu time :    34.7 secs   av.it.:  13.0
      thresh= 2.405E-06 alpha_mix =  0.700 |ddv_scf|^2 =  1.669E-12

      iter #   5 total cpu time :    37.9 secs   av.it.:  14.0
      thresh= 1.292E-07 alpha_mix =  0.700 |ddv_scf|^2 =  6.458E-14

      iter #   6 total cpu time :    40.7 secs   av.it.:  14.0
      thresh= 2.541E-08 alpha_mix =  0.700 |ddv_scf|^2 =  1.808E-14

      iter #   7 total cpu time :    41.4 secs   av.it.:  14.0
      thresh= 1.345E-08 alpha_mix =  0.700 |ddv_scf|^2 =  5.498E-16

     End of self-consistent calculation

     Convergence has been achieved 


     Representation #  4 mode #   4

     Self-consistent Calculation

      iter #   1 total cpu time :    43.1 secs   av.it.:   7.0
      thresh= 1.000E-02 alpha_mix =  0.700 |ddv_scf|^2 =  2.579E-08

      iter #   2 total cpu time :    44.3 secs   av.it.:  14.0
      thresh= 1.606E-05 alpha_mix =  0.700 |ddv_scf|^2 =  2.204E-08

      iter #   3 total cpu time :    46.4 secs   av.it.:  13.0
      thresh= 1.485E-05 alpha_mix =  0.700 |ddv_scf|^2 =  3.455E-10

      iter #   4 total cpu time :    48.3 secs   av.it.:  14.0
      thresh= 1.859E-06 alpha_mix =  0.700 |ddv_scf|^2 =  2.464E-12

      iter #   5 total cpu time :    50.6 secs   av.it.:  13.0
      thresh= 1.570E-07 alpha_mix =  0.700 |ddv_scf|^2 =  2.120E-13

      iter #   6 total cpu time :    52.1 secs   av.it.:  13.0
      thresh= 4.604E-08 alpha_mix =  0.700 |ddv_scf|^2 =  6.216E-15

     End of self-consistent calculation

     Convergence has been achieved 


     Representation #  5 mode #   5

     Self-consistent Calculation

      iter #   1 total cpu time :    54.8 secs   av.it.:   6.0
      thresh= 1.000E-02 alpha_mix =  0.700 |ddv_scf|^2 =  5.315E-09

      iter #   2 total cpu time :    56.3 secs   av.it.:  14.0
      thresh= 7.290E-06 alpha_mix =  0.700 |ddv_scf|^2 =  5.142E-10

      iter #   3 total cpu time :    57.5 secs   av.it.:  14.0
      thresh= 2.268E-06 alpha_mix =  0.700 |ddv_scf|^2 =  3.184E-10

      iter #   4 total cpu time :    58.8 secs   av.it.:  13.0
      thresh= 1.784E-06 alpha_mix =  0.700 |ddv_scf|^2 =  9.052E-12

      iter #   5 total cpu time :    60.0 secs   av.it.:  14.0
      thresh= 3.009E-07 alpha_mix =  0.700 |ddv_scf|^2 =  3.104E-14

      iter #   6 total cpu time :    60.7 secs   av.it.:  13.0
      thresh= 1.762E-08 alpha_mix =  0.700 |ddv_scf|^2 =  1.416E-15

     End of self-consistent calculation

     Convergence has been achieved 


     Representation #  6 mode #   6

     Self-consistent Calculation

      iter #   1 total cpu time :    63.2 secs   av.it.:   6.0
      thresh= 1.000E-02 alpha_mix =  0.700 |ddv_scf|^2 =  3.639E-09

      iter #   2 total cpu time :    64.2 secs   av.it.:  13.0
      thresh= 6.033E-06 alpha_mix =  0.700 |ddv_scf|^2 =  1.892E-10

      iter #   3 total cpu time :    65.2 secs   av.it.:  12.0
      thresh= 1.375E-06 alpha_mix =  0.700 |ddv_scf|^2 =  9.316E-12

      iter #   4 total cpu time :    66.4 secs   av.it.:  12.0
      thresh= 3.052E-07 alpha_mix =  0.700 |ddv_scf|^2 =  9.378E-14

      iter #   5 total cpu time :    66.9 secs   av.it.:  13.0
      thresh= 3.062E-08 alpha_mix =  0.700 |ddv_scf|^2 =  3.422E-16

     End of self-consistent calculation

     Convergence has been achieved 


     Representation #  7 mode #   7

     Self-consistent Calculation

      iter #   1 total cpu time :    68.1 secs   av.it.:   6.0
      thresh= 1.000E-02 alpha_mix =  0.700 |ddv_scf|^2 =  6.011E-09

      iter #   2 total cpu time :    69.0 secs   av.it.:  14.0
      thresh= 7.753E-06 alpha_mix =  0.700 |ddv_scf|^2 =  4.793E-10

      iter #   3 total cpu time :    70.2 secs   av.it.:  14.0
      thresh= 2.189E-06 alpha_mix =  0.700 |ddv_scf|^2 =  3.143E-10

      iter #   4 total cpu time :    72.6 secs   av.it.:  13.0
      thresh= 1.773E-06 alpha_mix =  0.700 |ddv_scf|^2 =  1.044E-11

      iter #   5 total cpu time :    74.6 secs   av.it.:  14.0
      thresh= 3.232E-07 alpha_mix =  0.700 |ddv_scf|^2 =  3.727E-14

      iter #   6 total cpu time :    74.9 secs   av.it.:  13.0
      thresh= 1.931E-08 alpha_mix =  0.700 |ddv_scf|^2 =  2.071E-15

     End of self-consistent calculation

     Convergence has been achieved 


     Representation #  8 mode #   8

     Self-consistent Calculation

      iter #   1 total cpu time :    77.3 secs   av.it.:   7.0
      thresh= 1.000E-02 alpha_mix =  0.700 |ddv_scf|^2 =  2.701E-08

      iter #   2 total cpu time :    78.4 secs   av.it.:  14.0
      thresh= 1.643E-05 alpha_mix =  0.700 |ddv_scf|^2 =  2.186E-08

      iter #   3 total cpu time :    79.4 secs   av.it.:  13.0
      thresh= 1.479E-05 alpha_mix =  0.700 |ddv_scf|^2 =  4.290E-10

      iter #   4 total cpu time :    81.3 secs   av.it.:  14.0
      thresh= 2.071E-06 alpha_mix =  0.700 |ddv_scf|^2 =  2.611E-12

      iter #   5 total cpu time :    83.4 secs   av.it.:  14.0
      thresh= 1.616E-07 alpha_mix =  0.700 |ddv_scf|^2 =  2.130E-13

      iter #   6 total cpu time :    84.7 secs   av.it.:  13.0
      thresh= 4.615E-08 alpha_mix =  0.700 |ddv_scf|^2 =  5.182E-15

     End of self-consistent calculation

     Convergence has been achieved 


     Representation #  9 mode #   9

     Self-consistent Calculation

      iter #   1 total cpu time :    86.0 secs   av.it.:   6.0
      thresh= 1.000E-02 alpha_mix =  0.700 |ddv_scf|^2 =  4.274E-09

      iter #   2 total cpu time :    87.0 secs   av.it.:  13.0
      thresh= 6.537E-06 alpha_mix =  0.700 |ddv_scf|^2 =  2.392E-10

      iter #   3 total cpu time :    88.3 secs   av.it.:  12.0
      thresh= 1.547E-06 alpha_mix =  0.700 |ddv_scf|^2 =  1.081E-11

      iter #   4 total cpu time :    90.0 secs   av.it.:  12.0
      thresh= 3.288E-07 alpha_mix =  0.700 |ddv_scf|^2 =  1.123E-13

      iter #   5 total cpu time :    90.5 secs   av.it.:  13.0
      thresh= 3.350E-08 alpha_mix =  0.700 |ddv_scf|^2 =  3.518E-16

     End of self-consistent calculation

     Convergence has been achieved 
 
     Number of q in the star =    1
     List of q in the star:
          1   0.000000000   0.000000000   0.000000000

          Effective charges (d P / du) in cartesian axis 

           atom      1   O  
      Px  (       -0.49161        0.09139       -0.00000 )
      Py  (        0.08946       -0.46468       -0.00000 )
      Pz  (        0.00003        0.00004       -0.82170 )
           atom      2   H  
      Px  (        0.09486       -0.08170        0.00000 )
      Py  (       -0.05174        0.27679       -0.00000 )
      Pz  (       -0.00001       -0.00001        0.32504 )
           atom      3   H  
      Px  (        0.30029       -0.01024       -0.00000 )
      Py  (       -0.04082        0.07474        0.00000 )
      Pz  (       -0.00001       -0.00001        0.32596 )

     Diagonalizing the dynamical matrix

     q = (    0.000000000   0.000000000   0.000000000 ) 

 **************************************************************************
     freq (    1) =      -3.785702 [THz] =    -126.277431 [cm-1]
     freq (    2) =      -2.755751 [THz] =     -91.921948 [cm-1]
     freq (    3) =       1.055052 [THz] =      35.192748 [cm-1]
     freq (    4) =       1.115367 [THz] =      37.204640 [cm-1]
     freq (    5) =       1.280236 [THz] =      42.704071 [cm-1]
     freq (    6) =       3.260152 [THz] =     108.746979 [cm-1]
     freq (    7) =      47.788156 [THz] =    1594.041309 [cm-1]
     freq (    8) =     111.797134 [THz] =    3729.150972 [cm-1]
     freq (    9) =     114.876787 [THz] =    3831.877145 [cm-1]
 **************************************************************************

     Mode symmetry, C_1 (1)     point group:

     freq (  1 -  1) =       -126.3  [cm-1]   -->   ?
     freq (  2 -  2) =        -91.9  [cm-1]   -->   ?
     freq (  3 -  3) =         35.2  [cm-1]   -->   ?
     freq (  4 -  4) =         37.2  [cm-1]   -->   ?
     freq (  5 -  5) =         42.7  [cm-1]   -->   ?
     freq (  6 -  6) =        108.7  [cm-1]   -->   ?
     freq (  7 -  7) =       1594.0  [cm-1]   --> A               I+R
     freq (  8 -  8) =       3729.2  [cm-1]   --> A               I+R
     freq (  9 -  9) =       3831.9  [cm-1]   --> A               I+R
 
     PHONON       :     12.34s CPU   1m32.38s WALL

     INITIALIZATION: 
     phq_setup    :      0.01s CPU      0.34s WALL (       1 calls)
     phq_init     :      0.13s CPU      0.27s WALL (       1 calls)
 
     phq_init     :      0.13s CPU      0.27s WALL (       1 calls)
     set_drhoc    :      0.05s CPU      0.05s WALL (       3 calls)
     init_vloc    :      0.00s CPU      0.00s WALL (       1 calls)
     init_us_1    :      0.01s CPU      0.01s WALL (       1 calls)
     newd         :      0.00s CPU      0.00s WALL (       1 calls)
     dvanqq       :      0.01s CPU      0.01s WALL (       1 calls)
     drho         :      0.03s CPU      0.04s WALL (       1 calls)
     cmpt_qdipol  :      0.00s CPU      0.00s WALL (       1 calls)
 
     DYNAMICAL MATRIX:
     dynmat0      :      0.05s CPU      0.18s WALL (       1 calls)
     phqscf       :     11.79s CPU     88.83s WALL (       1 calls)
     dynmatrix    :      0.00s CPU      0.05s WALL (       1 calls)
 
     phqscf       :     11.79s CPU     88.83s WALL (       1 calls)
     solve_linter :     11.67s CPU     82.76s WALL (       9 calls)
     drhodv       :      0.02s CPU      0.02s WALL (       9 calls)
     add_zstar_ue :      0.08s CPU      0.10s WALL (       9 calls)
     add_zstar_us :      0.01s CPU      0.03s WALL (       9 calls)
 
     dynmat0      :      0.05s CPU      0.18s WALL (       1 calls)
     dynmat_us    :      0.00s CPU      0.00s WALL (       1 calls)
     d2ionq       :      0.00s CPU      0.00s WALL (       1 calls)
     dynmatcc     :      0.04s CPU      0.04s WALL (       1 calls)
 
     dynmat_us    :      0.00s CPU      0.00s WALL (       1 calls)
     addusdynmat  :      0.00s CPU      0.00s WALL (       1 calls)
 
     phqscf       :     11.79s CPU     88.83s WALL (       1 calls)
     solve_linter :     11.67s CPU     82.76s WALL (       9 calls)
 
     solve_linter :     11.67s CPU     82.76s WALL (       9 calls)
     dvqpsi_us    :      0.01s CPU      0.01s WALL (       9 calls)
     ortho        :      0.00s CPU      0.01s WALL (      58 calls)
     cgsolve      :      0.81s CPU      0.92s WALL (      58 calls)
     incdrhoscf   :      0.09s CPU      0.14s WALL (      55 calls)
     addusddens   :      0.15s CPU      0.16s WALL (      64 calls)
     vpsifft      :      0.04s CPU      0.05s WALL (      46 calls)
     dv_of_drho   :      0.17s CPU      0.17s WALL (      55 calls)
     mix_pot      :      0.63s CPU     35.88s WALL (      55 calls)
     newdq        :      0.12s CPU      0.13s WALL (      55 calls)
     adddvscf     :      0.00s CPU      0.00s WALL (      46 calls)
     drhodvus     :      0.00s CPU      0.00s WALL (       9 calls)
 
     dvqpsi_us    :      0.01s CPU      0.01s WALL (       9 calls)
     dvqpsi_us_on :      0.00s CPU      0.00s WALL (       9 calls)
 
     cgsolve      :      0.81s CPU      0.92s WALL (      58 calls)
     ch_psi       :      0.79s CPU      0.90s WALL (     966 calls)
 
     ch_psi       :      0.79s CPU      0.90s WALL (     966 calls)
     h_psi        :      0.73s CPU      0.84s WALL (     966 calls)
     last         :      0.04s CPU      0.05s WALL (     966 calls)
 
     h_psi        :      0.73s CPU      0.84s WALL (     966 calls)
     add_vuspsi   :      0.01s CPU      0.01s WALL (     966 calls)
 
     incdrhoscf   :      0.09s CPU      0.14s WALL (      55 calls)
     addusdbec    :      0.00s CPU      0.00s WALL (      64 calls)
 
     drhodvus     :      0.00s CPU      0.00s WALL (       9 calls)
 
      General routines
     calbec       :      0.04s CPU      0.05s WALL (    2322 calls)
     fft          :      0.21s CPU      0.23s WALL (     967 calls)
     ffts         :      0.02s CPU      0.02s WALL (      99 calls)
     fftw         :      0.78s CPU      0.93s WALL (    7160 calls)
     davcio       :      0.04s CPU      5.84s WALL (     778 calls)
     write_rec    :      0.06s CPU     40.43s WALL (      64 calls)
 
 
     PHONON       :     12.34s CPU   1m32.38s WALL

 
   This run was terminated on:  11:35:25  22Oct2021            

=------------------------------------------------------------------------------=
   JOB DONE.
=------------------------------------------------------------------------------=

====================================================================
                      SLURM SrunEpilog script
--------------------------------------------------------------------
   Finished job
====================================================================
